 running on  112 total cores
 distrk:  each k-point on   56 cores,    2 groups
 distr:  one band on    8 cores,    7 groups
 vasp.6.3.0 20Jan22 (build Apr 04 2023 14:49:15) complex                        
  
 POSCAR found type information on POSCAR U O 
 POSCAR found :  2 types and      72 ions
 scaLAPACK will be used
 LDA part: xc-table for Pade appr. of Perdew
 found WAVECAR, reading the header
 WAVECAR: different cutoff or change in lattice found
 POSCAR, INCAR and KPOINTS ok, starting setup
 FFT: planning ... GRIDC
 FFT: planning ... GRID_SOFT
 FFT: planning ... GRID
 reading WAVECAR
 the WAVECAR file was read successfully
 charge-density read from file: unknown                                 
 magnetization density read from file 1
 entering main loop
       N       E                     dE             d eps       ncg     rms          rms(c)
DAV:   1    -0.699639403356E+03   -0.69964E+03   -0.61752E-02 22694   0.101E+00    0.135E-02
DAV:   2    -0.699639407134E+03   -0.37779E-05   -0.11058E-04 35098   0.376E-02    0.937E-03
DAV:   3    -0.699639405569E+03    0.15648E-05   -0.92182E-06 37772   0.988E-03    0.505E-03
DAV:   4    -0.699639405884E+03   -0.31423E-06   -0.91892E-06 35392   0.863E-03    0.363E-03
DAV:   5    -0.699639405960E+03   -0.75939E-07   -0.24304E-06 32004   0.360E-03    0.300E-03
DAV:   6    -0.699639405951E+03    0.88039E-08   -0.12453E-06 28756   0.209E-03    0.119E-03
DAV:   7    -0.699639405987E+03   -0.36620E-07   -0.18249E-07 17248   0.156E-03
   1 F= -.69963941E+03 E0= -.69963941E+03  d E =-.699639E+03  mag=     0.0000
 Constraining cell:  1  0  0  |  0  1  0  |  0  0  1
 BRION: g(F)=  0.114E-03 g(S)=  0.711E-05
 bond charge predicted
       N       E                     dE             d eps       ncg     rms          rms(c)
DAV:   1    -0.699639396699E+03    0.92519E-05   -0.27876E-02 24444   0.318E-01    0.545E-02
DAV:   2    -0.699639515858E+03   -0.11916E-03   -0.13108E-03 35588   0.983E-02    0.284E-02
DAV:   3    -0.699639524428E+03   -0.85695E-05   -0.70961E-05 38444   0.222E-02    0.157E-02
DAV:   4    -0.699639522287E+03    0.21413E-05   -0.14824E-05 40166   0.109E-02    0.540E-03
DAV:   5    -0.699639522803E+03   -0.51682E-06   -0.48110E-06 35308   0.544E-03    0.317E-03
DAV:   6    -0.699639522704E+03    0.99149E-07   -0.11859E-06 32522   0.253E-03    0.198E-03
DAV:   7    -0.699639522660E+03    0.44223E-07   -0.19094E-07 16772   0.147E-03
   2 F= -.69963952E+03 E0= -.69963952E+03  d E =-.116673E-03  mag=     0.0000
 Constraining cell:  1  0  0  |  0  1  0  |  0  0  1
 BRION: g(F)=  0.109E-03 g(S)=  0.167E-05 retain N=  1 mean eig= 1.09
 eig:   1.088
 bond charge predicted
       N       E                     dE             d eps       ncg     rms          rms(c)
DAV:   1    -0.699639512039E+03    0.10665E-04   -0.18841E-02 22708   0.252E-01    0.421E-02
DAV:   2    -0.699639595459E+03   -0.83420E-04   -0.86383E-04 36106   0.757E-02    0.216E-02
DAV:   3    -0.699639603891E+03   -0.84316E-05   -0.45092E-05 38094   0.181E-02    0.121E-02
DAV:   4    -0.699639603962E+03   -0.70802E-07   -0.78238E-06 38738   0.881E-03    0.480E-03
DAV:   5    -0.699639604878E+03   -0.91665E-06   -0.39060E-06 37772   0.490E-03    0.264E-03
DAV:   6    -0.699639605170E+03   -0.29149E-06   -0.12365E-06 30660   0.256E-03    0.180E-03
DAV:   7    -0.699639605329E+03   -0.15915E-06   -0.21820E-07 17388   0.137E-03    0.118E-03
DAV:   8    -0.699639605555E+03   -0.22569E-06   -0.23323E-07 17206   0.141E-03    0.865E-04
DAV:   9    -0.699639605679E+03   -0.12430E-06   -0.18091E-07 17836   0.120E-03    0.814E-04
DAV:  10    -0.699639605768E+03   -0.88890E-07   -0.12037E-07 16114   0.108E-03
   3 F= -.69963961E+03 E0= -.69963961E+03  d E =-.831078E-04  mag=     0.0000
 Constraining cell:  1  0  0  |  0  1  0  |  0  0  1
 BRION: g(F)=  0.108E-03 g(S)=  0.347E-05 retain N=  1 mean eig= 0.08
 eig:   0.075
 bond charge predicted
       N       E                     dE             d eps       ncg     rms          rms(c)
DAV:   1    -0.699639629605E+03   -0.23926E-04   -0.27559E-03 22876   0.958E-02    0.159E-02
DAV:   2    -0.699639642356E+03   -0.12751E-04   -0.12313E-04 35770   0.282E-02    0.813E-03
DAV:   3    -0.699639643369E+03   -0.10130E-05   -0.57579E-06 36722   0.626E-03    0.454E-03
DAV:   4    -0.699639643235E+03    0.13402E-06   -0.11500E-06 33544   0.273E-03    0.181E-03
DAV:   5    -0.699639643243E+03   -0.76980E-08   -0.30540E-07 19446   0.159E-03
   4 F= -.69963964E+03 E0= -.69963964E+03  d E =-.374749E-04  mag=     0.0000
 Constraining cell:  1  0  0  |  0  1  0  |  0  0  1
 BRION: g(F)=  0.109E-03 g(S)=  0.160E-05 retain N=  1 mean eig= 0.66
 eig:   0.663
 bond charge predicted
       N       E                     dE             d eps       ncg     rms          rms(c)
DAV:   1    -0.699639590484E+03    0.52751E-04   -0.37008E-02 22708   0.350E-01    0.569E-02
DAV:   2    -0.699639755444E+03   -0.16496E-03   -0.16063E-03 35868   0.102E-01    0.292E-02
DAV:   3    -0.699639770845E+03   -0.15401E-04   -0.78676E-05 37072   0.233E-02    0.163E-02
DAV:   4    -0.699639770164E+03    0.68103E-06   -0.14176E-05 39550   0.113E-02    0.636E-03
DAV:   5    -0.699639770719E+03   -0.55486E-06   -0.61365E-06 36806   0.608E-03    0.329E-03
DAV:   6    -0.699639770647E+03    0.72054E-07   -0.16826E-06 32592   0.305E-03    0.204E-03
DAV:   7    -0.699639770609E+03    0.38141E-07   -0.36913E-07 21756   0.156E-03
   5 F= -.69963977E+03 E0= -.69963977E+03  d E =-.127366E-03  mag=     0.0000
 Constraining cell:  1  0  0  |  0  1  0  |  0  0  1
 BRION: g(F)=  0.117E-03 g(S)=  0.158E-05 retain N=  1 mean eig= 0.71
 eig:   0.707
 bond charge predicted
       N       E                     dE             d eps       ncg     rms          rms(c)
DAV:   1    -0.699639792946E+03   -0.22300E-04   -0.68406E-03 22708   0.151E-01    0.231E-02
DAV:   2    -0.699639818840E+03   -0.25893E-04   -0.28180E-04 36344   0.444E-02    0.119E-02
DAV:   3    -0.699639821558E+03   -0.27183E-05   -0.18311E-05 38920   0.118E-02    0.681E-03
DAV:   4    -0.699639821659E+03   -0.10067E-06   -0.24788E-06 39550   0.591E-03    0.301E-03
DAV:   5    -0.699639822121E+03   -0.46236E-06   -0.16378E-06 36638   0.395E-03    0.159E-03
DAV:   6    -0.699639822367E+03   -0.24620E-06   -0.92859E-07 28406   0.224E-03    0.140E-03
DAV:   7    -0.699639822433E+03   -0.65913E-07   -0.11358E-07 15862   0.104E-03
   6 F= -.69963982E+03 E0= -.69963982E+03  d E =-.518245E-04  mag=     0.0000
 Constraining cell:  1  0  0  |  0  1  0  |  0  0  1
 BRION: g(F)=  0.119E-03 g(S)=  0.328E-06 retain N=  1 mean eig= 0.14
 eig:   0.136
 bond charge predicted
       N       E                     dE             d eps       ncg     rms          rms(c)
DAV:   1    -0.699639840206E+03   -0.17839E-04   -0.14212E-02 22708   0.215E-01    0.320E-02
DAV:   2    -0.699639898799E+03   -0.58593E-04   -0.55528E-04 35560   0.595E-02    0.166E-02
DAV:   3    -0.699639904299E+03   -0.54993E-05   -0.24437E-05 36722   0.123E-02    0.923E-03
DAV:   4    -0.699639904622E+03   -0.32312E-06   -0.46380E-06 37646   0.526E-03    0.342E-03
DAV:   5    -0.699639905053E+03   -0.43101E-06   -0.13321E-06 33908   0.277E-03    0.174E-03
DAV:   6    -0.699639905111E+03   -0.58288E-07   -0.25823E-07 17948   0.135E-03
   7 F= -.69963991E+03 E0= -.69963991E+03  d E =-.826779E-04  mag=     0.0000
 Constraining cell:  1  0  0  |  0  1  0  |  0  0  1
 BRION: g(F)=  0.123E-03 g(S)=  0.280E-05 retain N=  1 mean eig= 0.13
 eig:   0.127
 bond charge predicted
       N       E                     dE             d eps       ncg     rms          rms(c)
DAV:   1    -0.699639921722E+03   -0.16669E-04   -0.18596E-03 22876   0.796E-02    0.129E-02
DAV:   2    -0.699639928218E+03   -0.64963E-05   -0.79468E-05 37912   0.258E-02    0.665E-03
DAV:   3    -0.699639928437E+03   -0.21957E-06   -0.86924E-06 39802   0.887E-03    0.391E-03
DAV:   4    -0.699639928158E+03    0.27899E-06   -0.15488E-06 36358   0.387E-03    0.210E-03
DAV:   5    -0.699639928019E+03    0.13967E-06   -0.30849E-07 21196   0.341E-03    0.994E-04
DAV:   6    -0.699639928015E+03    0.41473E-08   -0.73703E-07 25102   0.219E-03
   8 F= -.69963993E+03 E0= -.69963993E+03  d E =-.229036E-04  mag=     0.0000
 Constraining cell:  1  0  0  |  0  1  0  |  0  0  1
 BRION: g(F)=  0.129E-03 g(S)=  0.404E-06 retain N=  1 mean eig= 0.31
 eig:   0.310
 bond charge predicted
       N       E                     dE             d eps       ncg     rms          rms(c)
DAV:   1    -0.699639907970E+03    0.20049E-04   -0.29759E-02 22708   0.312E-01    0.470E-02
DAV:   2    -0.699640031811E+03   -0.12384E-03   -0.11796E-03 35868   0.888E-02    0.246E-02
DAV:   3    -0.699640043355E+03   -0.11545E-04   -0.62272E-05 37058   0.204E-02    0.138E-02
DAV:   4    -0.699640042787E+03    0.56849E-06   -0.92970E-06 39452   0.103E-02    0.574E-03
DAV:   5    -0.699640043247E+03   -0.46006E-06   -0.50682E-06 36302   0.639E-03    0.268E-03
DAV:   6    -0.699640043343E+03   -0.95948E-07   -0.21196E-06 31598   0.337E-03    0.202E-03
DAV:   7    -0.699640043330E+03    0.12631E-07   -0.42541E-07 23464   0.154E-03
   9 F= -.69964004E+03 E0= -.69964004E+03  d E =-.115315E-03  mag=     0.0000
 Constraining cell:  1  0  0  |  0  1  0  |  0  0  1
 BRION: g(F)=  0.119E-03 g(S)=  0.173E-06 retain N=  2 mean eig= 1.05
 eig:   0.293  1.809
 bond charge predicted
       N       E                     dE             d eps       ncg     rms          rms(c)
DAV:   1    -0.699640052629E+03   -0.92861E-05   -0.14263E-02 22708   0.216E-01    0.343E-02
DAV:   2    -0.699640112623E+03   -0.59995E-04   -0.58337E-04 36148   0.631E-02    0.178E-02
DAV:   3    -0.699640119063E+03   -0.64397E-05   -0.32468E-05 37478   0.149E-02    0.100E-02
DAV:   4    -0.699640119313E+03   -0.25017E-06   -0.55414E-06 40768   0.754E-03    0.430E-03
DAV:   5    -0.699640119873E+03   -0.55993E-06   -0.24890E-06 36288   0.458E-03    0.204E-03
DAV:   6    -0.699640120075E+03   -0.20159E-06   -0.12355E-06 30338   0.251E-03    0.152E-03
DAV:   7    -0.699640120125E+03   -0.50379E-07   -0.17099E-07 16422   0.119E-03
  10 F= -.69964012E+03 E0= -.69964012E+03  d E =-.767952E-04  mag=     0.0000
 Constraining cell:  1  0  0  |  0  1  0  |  0  0  1
 BRION: g(F)=  0.113E-03 g(S)=  0.206E-05 retain N=  1 mean eig= 0.11
 eig:   0.115
 bond charge predicted
       N       E                     dE             d eps       ncg     rms          rms(c)
DAV:   1    -0.699640144453E+03   -0.24378E-04   -0.83289E-03 22708   0.166E-01    0.274E-02
DAV:   2    -0.699640179918E+03   -0.35465E-04   -0.35629E-04 35490   0.478E-02    0.137E-02
DAV:   3    -0.699640182722E+03   -0.28038E-05   -0.16968E-05 37800   0.109E-02    0.761E-03
DAV:   4    -0.699640182317E+03    0.40467E-06   -0.36206E-06 39396   0.506E-03    0.292E-03
DAV:   5    -0.699640182340E+03   -0.22854E-07   -0.10871E-06 33208   0.248E-03    0.169E-03
DAV:   6    -0.699640182265E+03    0.75393E-07   -0.25676E-07 17794   0.141E-03
  11 F= -.69964018E+03 E0= -.69964018E+03  d E =-.621395E-04  mag=     0.0000
 Constraining cell:  1  0  0  |  0  1  0  |  0  0  1
 BRION: g(F)=  0.103E-03 g(S)=  0.503E-06 retain N=  1 mean eig= 0.39
 eig:   0.390
 bond charge predicted
       N       E                     dE             d eps       ncg     rms          rms(c)
DAV:   1    -0.699640171416E+03    0.10924E-04   -0.20284E-02 22708   0.258E-01    0.411E-02
DAV:   2    -0.699640259095E+03   -0.87679E-04   -0.83861E-04 35980   0.747E-02    0.214E-02
DAV:   3    -0.699640268225E+03   -0.91304E-05   -0.44169E-05 37492   0.172E-02    0.119E-02
DAV:   4    -0.699640268416E+03   -0.19077E-06   -0.77124E-06 40026   0.898E-03    0.487E-03
DAV:   5    -0.699640269156E+03   -0.73967E-06   -0.38667E-06 37800   0.511E-03    0.254E-03
DAV:   6    -0.699640269291E+03   -0.13496E-06   -0.11705E-06 30240   0.266E-03    0.163E-03
DAV:   7    -0.699640269379E+03   -0.88206E-07   -0.30595E-07 19362   0.141E-03
  12 F= -.69964027E+03 E0= -.69964027E+03  d E =-.871140E-04  mag=     0.0000
 Constraining cell:  1  0  0  |  0  1  0  |  0  0  1
 BRION: g(F)=  0.103E-03 g(S)=  0.444E-06 retain N=  1 mean eig= 0.06
 eig:   0.061
 bond charge predicted
       N       E                     dE             d eps       ncg     rms          rms(c)
DAV:   1    -0.699640290897E+03   -0.21607E-04   -0.47248E-03 22736   0.124E-01    0.193E-02
DAV:   2    -0.699640311242E+03   -0.20344E-04   -0.19062E-04 36078   0.355E-02    0.101E-02
DAV:   3    -0.699640313288E+03   -0.20467E-05   -0.98150E-06 36610   0.792E-03    0.566E-03
DAV:   4    -0.699640313349E+03   -0.60289E-07   -0.18121E-06 39074   0.366E-03    0.241E-03
DAV:   5    -0.699640313465E+03   -0.11671E-06   -0.64217E-07 26670   0.221E-03    0.118E-03
DAV:   6    -0.699640313503E+03   -0.37537E-07   -0.23591E-07 17738   0.135E-03
  13 F= -.69964031E+03 E0= -.69964031E+03  d E =-.441243E-04  mag=     0.0000
 Constraining cell:  1  0  0  |  0  1  0  |  0  0  1
 BRION: g(F)=  0.955E-04 g(S)=  0.319E-06 retain N=  2 mean eig= 1.33
 eig:   0.001  2.662
 bond charge predicted
       N       E                     dE             d eps       ncg     rms          rms(c)
DAV:   1    -0.699640333652E+03   -0.20186E-04   -0.57549E-03 22708   0.137E-01    0.214E-02
DAV:   2    -0.699640358655E+03   -0.25003E-04   -0.23358E-04 35910   0.387E-02    0.110E-02
DAV:   3    -0.699640360978E+03   -0.23228E-05   -0.10758E-05 36974   0.828E-03    0.615E-03
DAV:   4    -0.699640360949E+03    0.28762E-07   -0.21257E-06 38836   0.389E-03    0.240E-03
DAV:   5    -0.699640361035E+03   -0.86497E-07   -0.68055E-07 27818   0.213E-03
  14 F= -.69964036E+03 E0= -.69964036E+03  d E =-.475325E-04  mag=     0.0000
 Constraining cell:  1  0  0  |  0  1  0  |  0  0  1
 BRION: g(F)=  0.975E-04 g(S)=  0.261E-06 retain N=  2 mean eig= 0.74
 eig:   0.738  0.738
 bond charge predicted
       N       E                     dE             d eps       ncg     rms          rms(c)
DAV:   1    -0.699640358685E+03    0.22643E-05   -0.20021E-02 22708   0.255E-01    0.401E-02
DAV:   2    -0.699640445566E+03   -0.86882E-04   -0.80968E-04 35700   0.716E-02    0.207E-02
DAV:   3    -0.699640454250E+03   -0.86831E-05   -0.36488E-05 36554   0.151E-02    0.115E-02
DAV:   4    -0.699640454581E+03   -0.33138E-06   -0.73750E-06 38738   0.648E-03    0.436E-03
DAV:   5    -0.699640454951E+03   -0.36985E-06   -0.18911E-06 36484   0.340E-03    0.213E-03
DAV:   6    -0.699640454971E+03   -0.20540E-07   -0.47939E-07 21966   0.168E-03
  15 F= -.69964045E+03 E0= -.69964045E+03  d E =-.939359E-04  mag=     0.0000
 Constraining cell:  1  0  0  |  0  1  0  |  0  0  1
 BRION: g(F)=  0.107E-03 g(S)=  0.490E-07 retain N=  3 mean eig= 1.41
 eig:   1.671  1.671  0.888
 bond charge predicted
       N       E                     dE             d eps       ncg     rms          rms(c)
DAV:   1    -0.699640454704E+03    0.24665E-06   -0.35712E-07 20216   0.142E-03    0.834E-04
DAV:   2    -0.699640454740E+03   -0.35317E-07   -0.66033E-08 15064   0.810E-04
  16 F= -.69964045E+03 E0= -.69964045E+03  d E =0.231870E-06  mag=     0.0000
 Constraining cell:  1  0  0  |  0  1  0  |  0  0  1
 BRION: g(F)=  0.106E-03 g(S)=  0.756E-07 retain N=  1 mean eig= 0.01
 eig:   0.010
 bond charge predicted
       N       E                     dE             d eps       ncg     rms          rms(c)
DAV:   1    -0.699640438866E+03    0.15838E-04   -0.23526E-02 22708   0.277E-01    0.456E-02
DAV:   2    -0.699640545551E+03   -0.10668E-03   -0.99624E-04 35714   0.795E-02    0.235E-02
DAV:   3    -0.699640556707E+03   -0.11156E-04   -0.44491E-05 36568   0.171E-02    0.130E-02
DAV:   4    -0.699640557267E+03   -0.55991E-06   -0.89343E-06 39060   0.835E-03    0.480E-03
DAV:   5    -0.699640557976E+03   -0.70949E-06   -0.33077E-06 36092   0.429E-03    0.260E-03
DAV:   6    -0.699640558008E+03   -0.32429E-07   -0.68357E-07 26600   0.202E-03
  17 F= -.69964056E+03 E0= -.69964056E+03  d E =-.103269E-03  mag=     0.0000
 Constraining cell:  1  0  0  |  0  1  0  |  0  0  1
 BRION: g(F)=  0.118E-03 g(S)=  0.517E-06 retain N=  2 mean eig= 2.14
 eig:   0.015  4.263
 bond charge predicted
       N       E                     dE             d eps       ncg     rms          rms(c)
DAV:   1    -0.699640573065E+03   -0.15089E-04   -0.67931E-04 22904   0.472E-02    0.766E-03
DAV:   2    -0.699640576216E+03   -0.31507E-05   -0.28533E-05 35770   0.136E-02    0.392E-03
DAV:   3    -0.699640576505E+03   -0.28896E-06   -0.14084E-06 36260   0.311E-03    0.227E-03
DAV:   4    -0.699640576517E+03   -0.12013E-07   -0.20917E-07 16506   0.176E-03
  18 F= -.69964058E+03 E0= -.69964058E+03  d E =-.185084E-04  mag=     0.0000
 Constraining cell:  1  0  0  |  0  1  0  |  0  0  1
 BRION: g(F)=  0.113E-03 g(S)=  0.462E-06 retain N=  3 mean eig= 1.29
 eig:   0.015  1.934  1.934
 bond charge predicted
       N       E                     dE             d eps       ncg     rms          rms(c)
DAV:   1    -0.699640591834E+03   -0.15329E-04   -0.13872E-03 22736   0.678E-02    0.105E-02
DAV:   2    -0.699640597970E+03   -0.61367E-05   -0.57608E-05 35938   0.195E-02    0.551E-03
DAV:   3    -0.699640598535E+03   -0.56448E-06   -0.29502E-06 36568   0.430E-03    0.314E-03
DAV:   4    -0.699640598523E+03    0.11321E-07   -0.45074E-07 24332   0.206E-03
  19 F= -.69964060E+03 E0= -.69964060E+03  d E =-.220065E-04  mag=     0.0000
 Constraining cell:  1  0  0  |  0  1  0  |  0  0  1
 BRION: g(F)=  0.115E-03 g(S)=  0.280E-06 retain N=  4 mean eig= 1.92
 eig:   3.741  3.741  0.003  0.184
 bond charge predicted
       N       E                     dE             d eps       ncg     rms          rms(c)
DAV:   1    -0.699640616584E+03   -0.18049E-04   -0.74681E-04 22750   0.496E-02    0.834E-03
DAV:   2    -0.699640620124E+03   -0.35404E-05   -0.32888E-05 35826   0.146E-02    0.434E-03
DAV:   3    -0.699640620527E+03   -0.40278E-06   -0.16410E-06 35994   0.319E-03    0.248E-03
DAV:   4    -0.699640620573E+03   -0.46450E-07   -0.23993E-07 17304   0.154E-03
  20 F= -.69964062E+03 E0= -.69964062E+03  d E =-.220500E-04  mag=     0.0000
 Constraining cell:  1  0  0  |  0  1  0  |  0  0  1
 BRION: g(F)=  0.112E-03 g(S)=  0.561E-06 retain N=  2 mean eig= 1.47
 eig:   0.585  2.350
 bond charge predicted
       N       E                     dE             d eps       ncg     rms          rms(c)
DAV:   1    -0.699640640787E+03   -0.20260E-04   -0.16521E-02 22708   0.230E-01    0.298E-02
DAV:   2    -0.699640699200E+03   -0.58413E-04   -0.58131E-04 35476   0.617E-02    0.154E-02
DAV:   3    -0.699640702738E+03   -0.35386E-05   -0.29043E-05 38052   0.134E-02    0.870E-03
DAV:   4    -0.699640701987E+03    0.75150E-06   -0.46609E-06 38850   0.647E-03    0.352E-03
DAV:   5    -0.699640702087E+03   -0.99957E-07   -0.23097E-06 36302   0.356E-03    0.216E-03
DAV:   6    -0.699640702017E+03    0.69747E-07   -0.48803E-07 23604   0.175E-03
  21 F= -.69964070E+03 E0= -.69964070E+03  d E =-.814437E-04  mag=     0.0000
 Constraining cell:  1  0  0  |  0  1  0  |  0  0  1
 BRION: g(F)=  0.111E-03 g(S)=  0.186E-05 retain N=  1 mean eig= 0.22
 eig:   0.223
 bond charge predicted
       N       E                     dE             d eps       ncg     rms          rms(c)
DAV:   1    -0.699640721868E+03   -0.19781E-04   -0.94593E-03 22708   0.176E-01    0.270E-02
DAV:   2    -0.699640758661E+03   -0.36793E-04   -0.38245E-04 35826   0.497E-02    0.137E-02
DAV:   3    -0.699640762123E+03   -0.34628E-05   -0.17767E-05 38192   0.111E-02    0.765E-03
DAV:   4    -0.699640762371E+03   -0.24736E-06   -0.35792E-06 38710   0.585E-03    0.292E-03
DAV:   5    -0.699640762850E+03   -0.47959E-06   -0.16672E-06 35840   0.293E-03    0.191E-03
DAV:   6    -0.699640762950E+03   -0.10002E-06   -0.27096E-07 19082   0.145E-03    0.120E-03
DAV:   7    -0.699640763130E+03   -0.17975E-06   -0.28214E-07 17738   0.136E-03    0.795E-04
DAV:   8    -0.699640763204E+03   -0.73996E-07   -0.10517E-07 14756   0.102E-03
  22 F= -.69964076E+03 E0= -.69964076E+03  d E =-.611871E-04  mag=     0.0000
 Constraining cell:  1  0  0  |  0  1  0  |  0  0  1
 BRION: g(F)=  0.107E-03 g(S)=  0.170E-07 retain N=  1 mean eig= 0.33
 eig:   0.329
 bond charge predicted
       N       E                     dE             d eps       ncg     rms          rms(c)
DAV:   1    -0.699640765918E+03   -0.27876E-05   -0.21224E-02 22708   0.262E-01    0.381E-02
DAV:   2    -0.699640849444E+03   -0.83526E-04   -0.79151E-04 35700   0.715E-02    0.197E-02
DAV:   3    -0.699640857065E+03   -0.76212E-05   -0.36030E-05 37016   0.148E-02    0.110E-02
DAV:   4    -0.699640857338E+03   -0.27326E-06   -0.70473E-06 38976   0.704E-03    0.420E-03
DAV:   5    -0.699640857904E+03   -0.56552E-06   -0.24832E-06 36050   0.369E-03    0.237E-03
DAV:   6    -0.699640857935E+03   -0.31425E-07   -0.48600E-07 23002   0.174E-03
  23 F= -.69964086E+03 E0= -.69964086E+03  d E =-.947307E-04  mag=     0.0000
 Constraining cell:  1  0  0  |  0  1  0  |  0  0  1
 BRION: g(F)=  0.107E-03 g(S)=  0.844E-06 retain N=  1 mean eig= 0.17
 eig:   0.175
 bond charge predicted
       N       E                     dE             d eps       ncg     rms          rms(c)
DAV:   1    -0.699640884064E+03   -0.26160E-04   -0.36500E-03 22708   0.109E-01    0.176E-02
DAV:   2    -0.699640899554E+03   -0.15490E-04   -0.15200E-04 35742   0.314E-02    0.884E-03
DAV:   3    -0.699640900721E+03   -0.11672E-05   -0.73666E-06 37758   0.717E-03    0.497E-03
DAV:   4    -0.699640900520E+03    0.20123E-06   -0.15558E-06 37772   0.370E-03    0.198E-03
DAV:   5    -0.699640900519E+03    0.69122E-09   -0.56632E-07 25746   0.189E-03
  24 F= -.69964090E+03 E0= -.69964090E+03  d E =-.425841E-04  mag=     0.0000
 Constraining cell:  1  0  0  |  0  1  0  |  0  0  1
 BRION: g(F)=  0.105E-03 g(S)=  0.162E-06 retain N=  1 mean eig= 0.46
 eig:   0.460
 bond charge predicted
       N       E                     dE             d eps       ncg     rms          rms(c)
DAV:   1    -0.699640886859E+03    0.13660E-04   -0.25283E-02 22708   0.286E-01    0.437E-02
DAV:   2    -0.699640992869E+03   -0.10601E-03   -0.99435E-04 35574   0.794E-02    0.226E-02
DAV:   3    -0.699641003078E+03   -0.10209E-04   -0.44285E-05 36932   0.168E-02    0.126E-02
DAV:   4    -0.699641003395E+03   -0.31699E-06   -0.89879E-06 39830   0.869E-03    0.484E-03
DAV:   5    -0.699641004041E+03   -0.64608E-06   -0.36116E-06 36232   0.443E-03    0.289E-03
DAV:   6    -0.699641004025E+03    0.16742E-07   -0.74136E-07 26726   0.210E-03
  25 F= -.69964100E+03 E0= -.69964100E+03  d E =-.103505E-03  mag=     0.0000
 Constraining cell:  1  0  0  |  0  1  0  |  0  0  1
 BRION: g(F)=  0.122E-03 g(S)=  0.350E-06 retain N=  2 mean eig= 1.04
 eig:   0.455  1.620
 bond charge predicted
       N       E                     dE             d eps       ncg     rms          rms(c)
DAV:   1    -0.699641007293E+03   -0.32518E-05   -0.22446E-05 23562   0.868E-03    0.161E-03
DAV:   2    -0.699641007445E+03   -0.15159E-06   -0.10949E-06 32816   0.262E-03    0.957E-04
DAV:   3    -0.699641007481E+03   -0.36096E-07   -0.60872E-08 14392   0.755E-04
  26 F= -.69964101E+03 E0= -.69964101E+03  d E =-.345623E-05  mag=     0.0000
 Constraining cell:  1  0  0  |  0  1  0  |  0  0  1
 BRION: g(F)=  0.118E-03 g(S)=  0.378E-06 retain N=  3 mean eig= 1.43
 eig:   0.516  2.614  1.171
 bond charge predicted
       N       E                     dE             d eps       ncg     rms          rms(c)
DAV:   1    -0.699641026657E+03   -0.19212E-04   -0.13606E-02 27608   0.253E-01    0.566E-02
DAV:   2    -0.699641029667E+03   -0.30101E-05   -0.70814E-04 35280   0.758E-02    0.282E-02
DAV:   3    -0.699641024406E+03    0.52608E-05   -0.74993E-05 38906   0.255E-02    0.134E-02
DAV:   4    -0.699641023758E+03    0.64744E-06   -0.19507E-05 40166   0.111E-02    0.527E-03
DAV:   5    -0.699641024486E+03   -0.72809E-06   -0.50655E-06 37324   0.571E-03    0.343E-03
DAV:   6    -0.699641025170E+03   -0.68322E-06   -0.13414E-06 35476   0.251E-03    0.236E-03
DAV:   7    -0.699641025568E+03   -0.39858E-06   -0.26657E-07 19040   0.166E-03    0.144E-03
DAV:   8    -0.699641026032E+03   -0.46408E-06   -0.47982E-07 21756   0.175E-03    0.105E-03
DAV:   9    -0.699641026177E+03   -0.14428E-06   -0.16570E-07 18228   0.130E-03    0.922E-04
DAV:  10    -0.699641026257E+03   -0.80698E-07   -0.11449E-07 14714   0.116E-03
  27 F= -.69964103E+03 E0= -.69964103E+03  d E =-.187765E-04  mag=     0.0000
 Constraining cell:  1  0  0  |  0  1  0  |  0  0  1
 BRION: g(F)=  0.143E-03 g(S)=  0.438E-04 retain N=  3 mean eig= 2.17
 eig:   0.388  1.673  4.438
 bond charge predicted
       N       E                     dE             d eps       ncg     rms          rms(c)
DAV:   1    -0.699641050297E+03   -0.24121E-04   -0.62286E-03 22764   0.144E-01    0.226E-02
DAV:   2    -0.699641078093E+03   -0.27796E-04   -0.26836E-04 35644   0.420E-02    0.117E-02
DAV:   3    -0.699641080438E+03   -0.23444E-05   -0.12442E-05 36862   0.904E-03    0.657E-03
DAV:   4    -0.699641080274E+03    0.16359E-06   -0.24790E-06 38710   0.434E-03    0.260E-03
DAV:   5    -0.699641080363E+03   -0.88687E-07   -0.83993E-07 29274   0.229E-03
  28 F= -.69964108E+03 E0= -.69964108E+03  d E =-.541055E-04  mag=     0.0000
 Constraining cell:  1  0  0  |  0  1  0  |  0  0  1
 BRION: g(F)=  0.129E-03 g(S)=  0.383E-04 retain N=  1 mean eig= 0.48
 eig:   0.485
 bond charge predicted
       N       E                     dE             d eps       ncg     rms          rms(c)
DAV:   1    -0.699640750503E+03    0.32977E-03   -0.14793E-01 22680   0.712E-01    0.134E-01
DAV:   2    -0.699641298212E+03   -0.54771E-03   -0.73339E-03 35336   0.221E-01    0.630E-02
DAV:   3    -0.699641341564E+03   -0.43352E-04   -0.42191E-04 38584   0.553E-02    0.346E-02
DAV:   4    -0.699641331696E+03    0.98684E-05   -0.80679E-05 37926   0.227E-02    0.136E-02
DAV:   5    -0.699641333944E+03   -0.22481E-05   -0.24478E-05 40026   0.108E-02    0.823E-03
DAV:   6    -0.699641333738E+03    0.20566E-06   -0.68299E-06 42140   0.596E-03    0.521E-03
DAV:   7    -0.699641333359E+03    0.37895E-06   -0.14278E-06 35000   0.286E-03    0.299E-03
DAV:   8    -0.699641332759E+03    0.60065E-06   -0.47513E-07 22862   0.211E-03    0.113E-03
DAV:   9    -0.699641332672E+03    0.86337E-07   -0.26777E-07 19348   0.151E-03
  29 F= -.69964133E+03 E0= -.69964133E+03  d E =-.252310E-03  mag=     0.0000
 Constraining cell:  1  0  0  |  0  1  0  |  0  0  1
 BRION: g(F)=  0.128E-03 g(S)=  0.435E-04 retain N=  1 mean eig= 0.29
 eig:   0.285
 bond charge predicted
       N       E                     dE             d eps       ncg     rms          rms(c)
DAV:   1    -0.699641306736E+03    0.26023E-04   -0.98339E-03 22904   0.194E-01    0.473E-02
DAV:   2    -0.699641310156E+03   -0.34196E-05   -0.59742E-04 35826   0.680E-02    0.206E-02
DAV:   3    -0.699641310556E+03   -0.39988E-06   -0.44720E-05 38584   0.192E-02    0.960E-03
DAV:   4    -0.699641310036E+03    0.51920E-06   -0.10589E-05 37940   0.811E-03    0.383E-03
DAV:   5    -0.699641310955E+03   -0.91887E-06   -0.30233E-06 39130   0.375E-03    0.260E-03
DAV:   6    -0.699641311500E+03   -0.54457E-06   -0.60320E-07 26348   0.184E-03    0.180E-03
DAV:   7    -0.699641312102E+03   -0.60211E-06   -0.20269E-07 17318   0.142E-03    0.983E-04
DAV:   8    -0.699641312483E+03   -0.38079E-06   -0.22907E-07 17710   0.138E-03    0.633E-04
DAV:   9    -0.699641312600E+03   -0.11746E-06   -0.14410E-07 17052   0.115E-03    0.564E-04
DAV:  10    -0.699641312649E+03   -0.49295E-07   -0.11283E-07 15106   0.108E-03
  30 F= -.69964131E+03 E0= -.69964131E+03  d E =0.200230E-04  mag=     0.0000
 Constraining cell:  1  0  0  |  0  1  0  |  0  0  1
 BRION: g(F)=  0.109E-03 g(S)=  0.923E-06 retain N=  1 mean eig= 0.35
 eig:   0.352
 bond charge predicted
       N       E                     dE             d eps       ncg     rms          rms(c)
DAV:   1    -0.699641298990E+03    0.13610E-04   -0.24810E-02 22680   0.283E-01    0.419E-02
DAV:   2    -0.699641397563E+03   -0.98573E-04   -0.95895E-04 36036   0.805E-02    0.219E-02
DAV:   3    -0.699641407088E+03   -0.95248E-05   -0.52575E-05 37044   0.186E-02    0.123E-02
DAV:   4    -0.699641407231E+03   -0.14332E-06   -0.86636E-06 40264   0.947E-03    0.543E-03
DAV:   5    -0.699641408040E+03   -0.80906E-06   -0.40813E-06 35868   0.583E-03    0.255E-03
DAV:   6    -0.699641408272E+03   -0.23178E-06   -0.19340E-06 31024   0.319E-03    0.184E-03
DAV:   7    -0.699641408346E+03   -0.73713E-07   -0.34876E-07 20846   0.146E-03
  31 F= -.69964141E+03 E0= -.69964141E+03  d E =-.956962E-04  mag=     0.0000
 Constraining cell:  1  0  0  |  0  1  0  |  0  0  1
 BRION: g(F)=  0.105E-03 g(S)=  0.154E-05 retain N=  1 mean eig= 0.25
 eig:   0.248
 bond charge predicted
       N       E                     dE             d eps       ncg     rms          rms(c)
DAV:   1    -0.699641428141E+03   -0.19869E-04   -0.69197E-03 22708   0.152E-01    0.240E-02
DAV:   2    -0.699641458132E+03   -0.29992E-04   -0.29245E-04 36610   0.461E-02    0.127E-02
DAV:   3    -0.699641461083E+03   -0.29502E-05   -0.20253E-05 38052   0.122E-02    0.729E-03
DAV:   4    -0.699641460745E+03    0.33753E-06   -0.26551E-06 40096   0.613E-03    0.345E-03
DAV:   5    -0.699641460730E+03    0.15069E-07   -0.12584E-06 32620   0.477E-03    0.144E-03
DAV:   6    -0.699641460833E+03   -0.10280E-06   -0.16167E-06 31598   0.268E-03    0.149E-03
DAV:   7    -0.699641460830E+03    0.32014E-08   -0.10191E-07 15708   0.101E-03
  32 F= -.69964146E+03 E0= -.69964146E+03  d E =-.524839E-04  mag=     0.0000
 Constraining cell:  1  0  0  |  0  1  0  |  0  0  1
 BRION: g(F)=  0.972E-04 g(S)=  0.445E-06 retain N=  1 mean eig= 0.35
 eig:   0.346
 bond charge predicted
       N       E                     dE             d eps       ncg     rms          rms(c)
DAV:   1    -0.699641460983E+03   -0.14983E-06   -0.17369E-02 22680   0.238E-01    0.373E-02
DAV:   2    -0.699641536359E+03   -0.75376E-04   -0.71868E-04 35812   0.686E-02    0.193E-02
DAV:   3    -0.699641543208E+03   -0.68486E-05   -0.35165E-05 36974   0.153E-02    0.108E-02
DAV:   4    -0.699641542839E+03    0.36868E-06   -0.60818E-06 39102   0.787E-03    0.428E-03
DAV:   5    -0.699641543135E+03   -0.29558E-06   -0.32210E-06 36736   0.441E-03    0.245E-03
DAV:   6    -0.699641543089E+03    0.45256E-07   -0.72550E-07 26124   0.217E-03
  33 F= -.69964154E+03 E0= -.69964154E+03  d E =-.822597E-04  mag=     0.0000
 Constraining cell:  1  0  0  |  0  1  0  |  0  0  1
 BRION: g(F)=  0.937E-04 g(S)=  0.155E-05 retain N=  1 mean eig= 0.29
 eig:   0.293
 bond charge predicted
       N       E                     dE             d eps       ncg     rms          rms(c)
DAV:   1    -0.699641562078E+03   -0.18944E-04   -0.63044E-03 22694   0.145E-01    0.246E-02
DAV:   2    -0.699641586912E+03   -0.24834E-04   -0.27724E-04 35784   0.422E-02    0.121E-02
DAV:   3    -0.699641589739E+03   -0.28272E-05   -0.13141E-05 38276   0.981E-03    0.670E-03
DAV:   4    -0.699641590102E+03   -0.36324E-06   -0.29130E-06 39452   0.495E-03    0.258E-03
DAV:   5    -0.699641590492E+03   -0.38951E-06   -0.10055E-06 31066   0.234E-03    0.164E-03
DAV:   6    -0.699641590649E+03   -0.15711E-06   -0.22239E-07 17416   0.135E-03    0.102E-03
DAV:   7    -0.699641590850E+03   -0.20094E-06   -0.17972E-07 15694   0.125E-03    0.722E-04
DAV:   8    -0.699641590926E+03   -0.76026E-07   -0.12708E-07 15078   0.107E-03
  34 F= -.69964159E+03 E0= -.69964159E+03  d E =-.478365E-04  mag=     0.0000
 Constraining cell:  1  0  0  |  0  1  0  |  0  0  1
 BRION: g(F)=  0.921E-04 g(S)=  0.214E-06 retain N=  1 mean eig= 0.62
 eig:   0.621
 bond charge predicted
       N       E                     dE             d eps       ncg     rms          rms(c)
DAV:   1    -0.699641594500E+03   -0.36503E-05   -0.16266E-02 22680   0.231E-01    0.355E-02
DAV:   2    -0.699641663421E+03   -0.68921E-04   -0.64812E-04 35812   0.654E-02    0.185E-02
DAV:   3    -0.699641670461E+03   -0.70404E-05   -0.32923E-05 36498   0.143E-02    0.102E-02
DAV:   4    -0.699641670670E+03   -0.20925E-06   -0.54113E-06 39382   0.635E-03    0.418E-03
DAV:   5    -0.699641671113E+03   -0.44206E-06   -0.20285E-06 33824   0.363E-03    0.193E-03
DAV:   6    -0.699641671171E+03   -0.58702E-07   -0.61323E-07 24906   0.179E-03
  35 F= -.69964167E+03 E0= -.69964167E+03  d E =-.802454E-04  mag=     0.0000
 Constraining cell:  1  0  0  |  0  1  0  |  0  0  1
 BRION: g(F)=  0.982E-04 g(S)=  0.202E-06 retain N=  2 mean eig= 2.29
 eig:   0.677  3.898
 bond charge predicted
       N       E                     dE             d eps       ncg     rms          rms(c)
DAV:   1    -0.699641688274E+03   -0.17161E-04   -0.99351E-04 22792   0.570E-02    0.851E-03
DAV:   2    -0.699641692423E+03   -0.41491E-05   -0.38338E-05 35714   0.159E-02    0.441E-03
DAV:   3    -0.699641692817E+03   -0.39404E-06   -0.19623E-06 37156   0.363E-03    0.254E-03
DAV:   4    -0.699641692834E+03   -0.16713E-07   -0.22196E-07 17136   0.211E-03
  36 F= -.69964169E+03 E0= -.69964169E+03  d E =-.216624E-04  mag=     0.0000
 Constraining cell:  1  0  0  |  0  1  0  |  0  0  1
 BRION: g(F)=  0.993E-04 g(S)=  0.167E-06 retain N=  1 mean eig= 0.19
 eig:   0.186
 bond charge predicted
       N       E                     dE             d eps       ncg     rms          rms(c)
DAV:   1    -0.699641682543E+03    0.10274E-04   -0.19755E-02 22680   0.253E-01    0.381E-02
DAV:   2    -0.699641764472E+03   -0.81929E-04   -0.76694E-04 35672   0.705E-02    0.197E-02
DAV:   3    -0.699641772318E+03   -0.78459E-05   -0.36144E-05 36764   0.151E-02    0.109E-02
DAV:   4    -0.699641772411E+03   -0.93001E-07   -0.62392E-06 39914   0.774E-03    0.427E-03
DAV:   5    -0.699641772844E+03   -0.43274E-06   -0.31171E-06 35644   0.423E-03    0.244E-03
DAV:   6    -0.699641772819E+03    0.25168E-07   -0.58881E-07 24052   0.198E-03
  37 F= -.69964177E+03 E0= -.69964177E+03  d E =-.799850E-04  mag=     0.0000
 Constraining cell:  1  0  0  |  0  1  0  |  0  0  1
 BRION: g(F)=  0.954E-04 g(S)=  0.272E-06 retain N=  2 mean eig= 1.03
 eig:   0.232  1.824
 bond charge predicted
       N       E                     dE             d eps       ncg     rms          rms(c)
DAV:   1    -0.699641789174E+03   -0.16330E-04   -0.69469E-03 22680   0.151E-01    0.226E-02
DAV:   2    -0.699641817372E+03   -0.28198E-04   -0.27118E-04 36232   0.434E-02    0.118E-02
DAV:   3    -0.699641820323E+03   -0.29506E-05   -0.15562E-05 37352   0.102E-02    0.664E-03
DAV:   4    -0.699641820436E+03   -0.11308E-06   -0.21585E-06 39774   0.502E-03    0.291E-03
DAV:   5    -0.699641820718E+03   -0.28258E-06   -0.11525E-06 31066   0.340E-03    0.129E-03
DAV:   6    -0.699641820845E+03   -0.12619E-06   -0.78756E-07 27426   0.198E-03    0.118E-03
DAV:   7    -0.699641820869E+03   -0.24564E-07   -0.80364E-08 14742   0.948E-04
  38 F= -.69964182E+03 E0= -.69964182E+03  d E =-.480506E-04  mag=     0.0000
 Constraining cell:  1  0  0  |  0  1  0  |  0  0  1
 BRION: g(F)=  0.942E-04 g(S)=  0.290E-06 retain N=  3 mean eig= 1.96
 eig:   5.564  0.310  0.007
 bond charge predicted
       N       E                     dE             d eps       ncg     rms          rms(c)
DAV:   1    -0.699641843358E+03   -0.22513E-04   -0.57779E-03 22680   0.137E-01    0.206E-02
DAV:   2    -0.699641867613E+03   -0.24255E-04   -0.22712E-04 35812   0.384E-02    0.107E-02
DAV:   3    -0.699641869896E+03   -0.22836E-05   -0.10402E-05 36708   0.804E-03    0.598E-03
DAV:   4    -0.699641869951E+03   -0.54970E-07   -0.19223E-06 37114   0.354E-03    0.232E-03
DAV:   5    -0.699641870094E+03   -0.14273E-06   -0.60875E-07 26348   0.204E-03    0.115E-03
DAV:   6    -0.699641870122E+03   -0.27903E-07   -0.15661E-07 16324   0.119E-03
  39 F= -.69964187E+03 E0= -.69964187E+03  d E =-.492528E-04  mag=     0.0000
 Constraining cell:  1  0  0  |  0  1  0  |  0  0  1
 BRION: g(F)=  0.904E-04 g(S)=  0.500E-06 retain N=  3 mean eig= 2.69
 eig:   0.552  7.394  0.120
 bond charge predicted
       N       E                     dE             d eps       ncg     rms          rms(c)
DAV:   1    -0.699641883324E+03   -0.13229E-04   -0.16137E-03 22722   0.740E-02    0.118E-02
DAV:   2    -0.699641890002E+03   -0.66781E-05   -0.72346E-05 35980   0.220E-02    0.607E-03
DAV:   3    -0.699641890742E+03   -0.74023E-06   -0.34007E-06 37828   0.495E-03    0.346E-03
DAV:   4    -0.699641890868E+03   -0.12569E-06   -0.64730E-07 28938   0.276E-03    0.147E-03
DAV:   5    -0.699641891050E+03   -0.18274E-06   -0.37137E-07 21028   0.170E-03    0.947E-04
DAV:   6    -0.699641891097E+03   -0.47134E-07   -0.11468E-07 15022   0.121E-03
  40 F= -.69964189E+03 E0= -.69964189E+03  d E =-.209754E-04  mag=     0.0000
 Constraining cell:  1  0  0  |  0  1  0  |  0  0  1
 BRION: g(F)=  0.890E-04 g(S)=  0.408E-06 retain N=  1 mean eig= 0.50
 eig:   0.498
 bond charge predicted
       N       E                     dE             d eps       ncg     rms          rms(c)
DAV:   1    -0.699641883551E+03    0.74991E-05   -0.17689E-02 22680   0.241E-01    0.378E-02
DAV:   2    -0.699641961649E+03   -0.78098E-04   -0.73155E-04 35728   0.684E-02    0.196E-02
DAV:   3    -0.699641969129E+03   -0.74796E-05   -0.32953E-05 36512   0.144E-02    0.109E-02
DAV:   4    -0.699641969170E+03   -0.40869E-07   -0.60789E-06 37940   0.587E-03    0.398E-03
DAV:   5    -0.699641969457E+03   -0.28744E-06   -0.15685E-06 34090   0.308E-03    0.184E-03
DAV:   6    -0.699641969452E+03    0.53260E-08   -0.33906E-07 19866   0.148E-03
  41 F= -.69964197E+03 E0= -.69964197E+03  d E =-.783545E-04  mag=     0.0000
 Constraining cell:  1  0  0  |  0  1  0  |  0  0  1
 BRION: g(F)=  0.880E-04 g(S)=  0.374E-06 retain N=  1 mean eig= 0.06
 eig:   0.061
 bond charge predicted
       N       E                     dE             d eps       ncg     rms          rms(c)
DAV:   1    -0.699641984348E+03   -0.14891E-04   -0.58355E-03 22680   0.138E-01    0.210E-02
DAV:   2    -0.699642009511E+03   -0.25164E-04   -0.23701E-04 35672   0.390E-02    0.110E-02
DAV:   3    -0.699642011785E+03   -0.22737E-05   -0.10543E-05 36806   0.826E-03    0.611E-03
DAV:   4    -0.699642011761E+03    0.24287E-07   -0.18607E-06 37436   0.415E-03    0.233E-03
DAV:   5    -0.699642011909E+03   -0.14863E-06   -0.87269E-07 29610   0.227E-03    0.133E-03
DAV:   6    -0.699642011912E+03   -0.24156E-08   -0.13530E-07 15904   0.118E-03
  42 F= -.69964201E+03 E0= -.69964201E+03  d E =-.424599E-04  mag=     0.0000
 Constraining cell:  1  0  0  |  0  1  0  |  0  0  1
 BRION: g(F)=  0.830E-04 g(S)=  0.141E-06 retain N=  1 mean eig= 0.27
 eig:   0.267
 reached required accuracy - stopping structural energy minimisation
 writing wavefunctions
